# vtk DataFile Version 2.0
untitled, Created by Gmsh 4.10.5 
ASCII
DATASET UNSTRUCTURED_GRID
POINTS 20 double
0 0 0
0.2 0 0
0.2 0.2 0
0 0.2 0
0.0666666666666668 0 0
0.1333333333333335 0 0
0.2 0.0666666666666668 0
0.2 0.1333333333333335 0
0.1333333333333332 0.2 0
0.06666666666666649 0.2 0
0 0.1333333333333332 0
0 0.06666666666666649 0
0.1409616587406966 0.1000000000000001 0
0.05898987505696429 0.09999999999999988 0
0.09999192229961025 0.04948798365677903 0
0.09999192229961007 0.150512016343221 0
0.1515360490296628 0.1515360490296629 0
0.04846395097033722 0.04846395097033712 0
0.151536049029663 0.04846395097033708 0
0.048463950970337 0.1515360490296629 0
CELLS 26 104
3 13 14 12
3 12 15 13
3 11 13 10
3 7 12 6
3 5 14 4
3 9 15 8
3 8 16 2
3 4 17 0
3 2 16 7
3 0 17 11
3 6 18 1
3 10 19 3
3 3 19 9
3 1 18 5
3 13 19 10
3 11 17 13
3 7 16 12
3 12 18 6
3 14 18 12
3 15 19 13
3 13 17 14
3 12 16 15
3 5 18 14
3 14 17 4
3 15 16 8
3 9 19 15
CELL_TYPES 26
5
5
5
5
5
5
5
5
5
5
5
5
5
5
5
5
5
5
5
5
5
5
5
5
5
5
CELL_DATA 26
SCALARS material int
LOOKUP_TABLE default
1
1
1
1
1
1
1
1
1
1
1
1
1
1
1
1
1
1
1
1
1
1
1
1
1
1